 Gaussian 16, Revision C.02,

 ----------------------------------------------------------------------
 #p B3LYP 6-31+G(2df,p) empiricaldispersion=gd3 opt=(cartesian,calcall,
 maxcycles=500) freq scf=(maxcycles=500,xqc,maxconventional=50)
 ----------------------------------------------------------------------

 -----
 Title
 -----
 Symbolic Z-matrix:
 Charge =  2 Multiplicity = 5

 SCF Done:  E(UB3LYP) =  -1721.58178709     A.U. after   26 cycles
 SCF Done:  E(UB3LYP) =  -1721.61660407     A.U. after   24 cycles
 SCF Done:  E(UB3LYP) =  -1721.67265437     A.U. after   25 cycles
 SCF Done:  E(UB3LYP) =  -1721.72785997     A.U. after   26 cycles
 SCF Done:  E(UB3LYP) =  -1721.75793063     A.U. after   24 cycles
 SCF Done:  E(UB3LYP) =  -1721.79283371     A.U. after   26 cycles
 SCF Done:  E(UB3LYP) =  -1721.82023353     A.U. after   27 cycles
 SCF Done:  E(UB3LYP) =  -1721.83257761     A.U. after   26 cycles
 SCF Done:  E(UB3LYP) =  -1721.83330591     A.U. after   29 cycles
 SCF Done:  E(UB3LYP) =  -1721.83994730     A.U. after   25 cycles
 SCF Done:  E(UB3LYP) =  -1721.84939590     A.U. after   25 cycles
 SCF Done:  E(UB3LYP) =  -1721.84939852     A.U. after   23 cycles
 SCF Done:  E(UB3LYP) =  -1721.84939853     A.U. after   23 cycles
 SCF Done:  E(UB3LYP) =  -1721.84940279     A.U. after   18 cycles
 SCF Done:  E(UB3LYP) =  -1721.84939807     A.U. after   24 cycles
 SCF Done:  E(UB3LYP) =  -1721.84940411     A.U. after   23 cycles
 SCF Done:  E(UB3LYP) =  -1721.84939438     A.U. after   24 cycles
 SCF Done:  E(UB3LYP) =  -1721.84940138     A.U. after   13 cycles
 Optimization completed.
    -- Stationary point found.
 Normal termination of Gaussian 16 at Thu May  2 10:41:10 2024.

 ----------------------------------------------------------------------
 #P Geom=AllCheck Guess=TCheck SCRF=Check GenChk UB3LYP/6-31+G(2df,p) F
 req
 ----------------------------------------------------------------------

 Structure from the checkpoint file:  "Fe_2_B3LYP.chk"
 -----
 Title
 -----
 Charge =  2 Multiplicity = 5

 SCF Done:  E(UB3LYP) =  -1721.84940138     A.U. after    1 cycles

  Exact polarizability:      56.090       0.148      56.677      -0.310       0.073      57.264
 Approx polarizability:      67.844       0.350      69.202      -0.272       0.041      70.873

                      1                      2                      3
                      A                      A                      A
 Frequencies --     76.7363                79.1212                88.2098
 Red. masses --      3.1470                 5.0156                 4.8454
 Frc consts  --      0.0109                 0.0185                 0.0222
 IR Inten    --      0.0000                 4.8396                 3.5088

                      4                      5                      6
                      A                      A                      A
 Frequencies --     90.8660                92.2714               110.4262
 Red. masses --      6.0577                 4.6928                 4.8536
 Frc consts  --      0.0295                 0.0235                 0.0349
 IR Inten    --      9.6017                 0.0375                 0.0009

                      7                      8                      9
                      A                      A                      A
 Frequencies --    114.3939               124.2260               126.6408
 Red. masses --      3.2304                 5.4246                 1.2180
 Frc consts  --      0.0249                 0.0493                 0.0115
 IR Inten    --      0.9223                 3.0662                 0.0005

                     10                     11                     12
                      A                      A                      A
 Frequencies --    129.9277               188.8629               193.5460
 Red. masses --      5.1553                 5.5041                 1.0690
 Frc consts  --      0.0513                 0.1157                 0.0236
 IR Inten    --      0.5576                 0.0006                 4.3894

                     13                     14                     15
                      A                      A                      A
 Frequencies --    241.9697               254.6031               285.5175
 Red. masses --      1.0900                 2.4172                 1.2538
 Frc consts  --      0.0376                 0.0923                 0.0602
 IR Inten    --      2.8989                 0.0002                 0.0004

                     16                     17                     18
                      A                      A                      A
 Frequencies --    286.1952               312.1617               330.5567
 Red. masses --      1.1469                 1.7673                 3.7359
 Frc consts  --      0.0554                 0.1015                 0.2405
 IR Inten    --      0.0013               173.8254                26.7349

                     19                     20                     21
                      A                      A                      A
 Frequencies --    331.9275               332.5691               348.0008
 Red. masses --      1.0835                 1.9991                 5.9179
 Frc consts  --      0.0703                 0.1303                 0.4223
 IR Inten    --      0.2337               141.8479                 0.0014

                     22                     23                     24
                      A                      A                      A
 Frequencies --    361.5038               363.1747               374.2288
 Red. masses --      1.7972                 1.0756                 1.1106
 Frc consts  --      0.1384                 0.0836                 0.0916
 IR Inten    --    255.2862                 0.0208                 0.0201

                     25                     26                     27
                      A                      A                      A
 Frequencies --    375.4538               395.7764               417.4567
 Red. masses --      1.7353                 1.3515                 1.0335
 Frc consts  --      0.1441                 0.1247                 0.1061
 IR Inten    --    258.8124               406.9761                 8.6463

                     28                     29                     30
                      A                      A                      A
 Frequencies --    520.2311               541.7445               545.0276
 Red. masses --      1.1515                 1.1655                 1.2224
 Frc consts  --      0.1836                 0.2015                 0.2139
 IR Inten    --      0.0006                 0.0235               232.6660

                     31                     32                     33
                      A                      A                      A
 Frequencies --    545.6707               564.0472               572.5064
 Red. masses --      1.1579                 1.2247                 1.2300
 Frc consts  --      0.2031                 0.2296                 0.2375
 IR Inten    --      0.0396               267.1034               215.7654

                     34                     35                     36
                      A                      A                      A
 Frequencies --   1644.2736              1645.3780              1647.0674
 Red. masses --      1.0928                 1.0886                 1.0885
 Frc consts  --      1.7407                 1.7364                 1.7399
 IR Inten    --      0.0550               227.2328               222.1591

                     37                     38                     39
                      A                      A                      A
 Frequencies --   1647.9830              1649.3610              1656.4873
 Red. masses --      1.0895                 1.0878                 1.0820
 Frc consts  --      1.7433                 1.7435                 1.7492
 IR Inten    --      0.0623               214.5657                 0.0009

                     40                     41                     42
                      A                      A                      A
 Frequencies --   3756.2958              3756.7283              3760.9280
 Red. masses --      1.0437                 1.0436                 1.0433
 Frc consts  --      8.6769                 8.6777                 8.6949
 IR Inten    --    226.0971                 0.0597                 0.0113

                     43                     44                     45
                      A                      A                      A
 Frequencies --   3763.8290              3764.4043              3768.4907
 Red. masses --      1.0439                 1.0440                 1.0446
 Frc consts  --      8.7134                 8.7166                 8.7407
 IR Inten    --    233.6753               209.8589                 0.0021

                     46                     47                     48
                      A                      A                      A
 Frequencies --   3846.3014              3846.8660              3854.0165
 Red. masses --      1.0845                 1.0845                 1.0843
 Frc consts  --      9.4527                 9.4558                 9.4888
 IR Inten    --      0.1899               383.8486                 0.3783

                     49                     50                     51
                      A                      A                      A
 Frequencies --   3854.1471              3854.2592              3855.0394
 Red. masses --      1.0843                 1.0843                 1.0844
 Frc consts  --      9.4897                 9.4902                 9.4948
 IR Inten    --    278.1093                14.5147               458.0746

 - Thermochemistry -
 -------------------
 Temperature   298.150 Kelvin.  Pressure   1.00000 Atm.
 Atom     1 has atomic number 26 and mass  55.93494

 Molecular mass:   163.99833 amu.
 Principal axes and moments of inertia in atomic units:
                           1         2         3
     Eigenvalues --  1262.645071265.610081294.02233
           X            0.99883   0.04819  -0.00392
           Y           -0.04819   0.99884   0.00048
           Z            0.00394  -0.00029   0.99999
 This molecule is an asymmetric top.
 Rotational symmetry number  1.
 Warning -- assumption of classical behavior for rotation
           may cause significant error
 Rotational temperatures (Kelvin)      0.06860     0.06844     0.06693
 Rotational constants (GHZ):           1.42933     1.42599     1.39468
 Zero-point vibrational energy     390505.4 (Joules/Mol)
                                   93.33303 (Kcal/Mol)
 Warning -- explicit consideration of  33 degrees of freedom as
           vibrations may cause significant error
 Vibrational temperatures:    110.41   113.84   126.91   130.74   132.76
          (Kelvin)            158.88   164.59   178.73   182.21   186.94
                              271.73   278.47   348.14   366.32   410.80
                              411.77   449.13   475.60   477.57   478.49
                              500.70   520.12   522.53   538.43   540.19
                              569.43   600.63   748.50   779.45   784.17
                              785.10   811.54   823.71  2365.74  2367.33
                             2369.76  2371.08  2373.06  2383.32  5404.47
                             5405.09  5411.14  5415.31  5416.14  5422.02
                             5533.97  5534.78  5545.07  5545.26  5545.42
                             5546.54

 Zero-point correction=                           0.148736 (Hartree/Particle)
 Thermal correction to Energy=                    0.166910
 Thermal correction to Enthalpy=                  0.167854
 Thermal correction to Gibbs Free Energy=         0.103936
 Sum of electronic and zero-point Energies=          -1721.700666
 Sum of electronic and thermal Energies=             -1721.682491
 Sum of electronic and thermal Enthalpies=           -1721.681547
 Sum of electronic and thermal Free Energies=        -1721.745465

                     E (Thermal)             CV                S
                      KCal/Mol        Cal/Mol-Kelvin    Cal/Mol-Kelvin
 Total                  104.738             60.302            134.527
 Electronic               0.000              0.000              3.198
 Translational            0.889              2.981             41.193
 Rotational               0.889              2.981             29.115
 Vibrational            102.960             54.340             61.021
 Vibration     1          0.599              1.965              3.973
 Vibration     2          0.600              1.963              3.913
 Vibration     3          0.601              1.957              3.699
 Vibration     4          0.602              1.956              3.641
 Vibration     5          0.602              1.955              3.611
 Vibration     6          0.606              1.941              3.261
 Vibration     7          0.607              1.937              3.193
 Vibration     8          0.610              1.929              3.034
 Vibration     9          0.611              1.926              2.996
 Vibration    10          0.612              1.923              2.947
 Vibration    11          0.633              1.855              2.239
 Vibration    12          0.635              1.849              2.194
 Vibration    13          0.658              1.776              1.788
 Vibration    14          0.665              1.755              1.698
 Vibration    15          0.683              1.701              1.500
 Vibration    16          0.684              1.699              1.496
 Vibration    17          0.701              1.651              1.351
 Vibration    18          0.713              1.614              1.257
 Vibration    19          0.714              1.612              1.251
 Vibration    20          0.715              1.610              1.248
 Vibration    21          0.726              1.579              1.175
 Vibration    22          0.736              1.552              1.116
 Vibration    23          0.737              1.548              1.108
 Vibration    24          0.745              1.525              1.062
 Vibration    25          0.746              1.522              1.057
 Vibration    26          0.763              1.479              0.978
 Vibration    27          0.780              1.432              0.901
 Vibration    28          0.875              1.205              0.609
 Vibration    29          0.897              1.158              0.562
 Vibration    30          0.900              1.151              0.555
 Vibration    31          0.901              1.149              0.553
 Vibration    32          0.920              1.109              0.516
 Vibration    33          0.929              1.091              0.499

 Normal termination of Gaussian 16 at Thu May  2 10:43:02 2024.
 Gaussian 16:  ES64L-G16RevC.02  7-Dec-2021

 --------------------------------------------------------------------
 #p B3LYP scrf=(cpcm,solvent=water) geom=allcheck guess=read chkbasis
 --------------------------------------------------------------------

 Structure from the checkpoint file:  "Fe_2_B3LYP.chk_solvated"
 -----
 Title
 -----
 Charge =  2 Multiplicity = 5

                         Standard orientation:
 ---------------------------------------------------------------------
 Center     Atomic      Atomic             Coordinates (Angstroms)
 Number     Number       Type             X           Y           Z
 ---------------------------------------------------------------------
      1         26           0       -0.000089    0.000132   -0.000460
      2          8           0       -1.137212    0.341452    1.755276
      3          1           0       -1.280674    1.195960    2.185915
      4          8           0        1.759048   -0.399919    1.156411
      5          1           0        2.636189   -0.619310    0.813314
      6          8           0       -0.521270   -2.088329    0.064984
      7          1           0       -1.187365   -2.530713   -0.478766
      8          8           0        1.137167   -0.342211   -1.755386
      9          1           0        1.650595    0.317766   -2.242215
     10          8           0       -1.761259    0.400926   -1.153397
     11          1           0       -1.824831    0.393054   -2.118366
     12          8           0        0.523743    2.087753   -0.067035
     13          1           0        1.189946    2.529417    0.477168
     14          1           0        0.135833    2.759442   -0.644434
     15          1           0        1.819352   -0.391339    2.121582
     16          1           0       -1.650051   -0.319227    2.241777
     17          1           0       -2.637001    0.621063   -0.807195
     18          1           0       -0.131696   -2.759739    0.641586
     19          1           0        1.280282   -1.197183   -2.185221
 ---------------------------------------------------------------------

 SCF Done:  E(UB3LYP) =  -1722.10064809     A.U. after   22 cycles

 The electronic state is 5-A.
 Alpha  occ. eigenvalues -- -256.13261 -30.12777 -26.00526 -25.97567 -25.97464
 Alpha  occ. eigenvalues --  -19.21897 -19.21895 -19.21613 -19.21609 -19.21263
 Alpha  occ. eigenvalues --  -19.21262  -3.59766  -2.41420  -2.35330  -2.35118
 Alpha  occ. eigenvalues --   -1.08244  -1.07827  -1.07594  -1.07526  -1.07204
 Alpha  occ. eigenvalues --   -1.07148  -0.59735  -0.59581  -0.59535  -0.59423
 Alpha  occ. eigenvalues --   -0.59023  -0.58972  -0.53301  -0.51604  -0.50729
 Alpha  occ. eigenvalues --   -0.48977  -0.48618  -0.48110  -0.41615  -0.41560
 Alpha  occ. eigenvalues --   -0.38631  -0.38580  -0.38251  -0.37895  -0.36176
 Alpha  occ. eigenvalues --   -0.35914  -0.32937  -0.32218  -0.31521
 Alpha virt. eigenvalues --   -0.05253  -0.01048  -0.00974  -0.00954   0.03832
 Alpha virt. eigenvalues --    0.04645   0.04738   0.08673   0.08901   0.09124
 Alpha virt. eigenvalues --    0.09220   0.09464   0.09853   0.14028   0.14707

  Beta  occ. eigenvalues -- -256.13155 -30.05187 -25.93184 -25.91785 -25.91736
  Beta  occ. eigenvalues --  -19.21758 -19.21757 -19.21495 -19.21491 -19.21148
  Beta  occ. eigenvalues --  -19.21147  -3.40858  -2.17913  -2.17111  -2.17067
  Beta  occ. eigenvalues --   -1.08010  -1.07578  -1.07384  -1.07292  -1.07012
  Beta  occ. eigenvalues --   -1.06941  -0.59577  -0.59456  -0.59324  -0.59292
  Beta  occ. eigenvalues --   -0.58863  -0.58860  -0.52573  -0.48433  -0.48332
  Beta  occ. eigenvalues --   -0.48112  -0.47722  -0.47641  -0.38650  -0.38551
  Beta  occ. eigenvalues --   -0.38199  -0.37999  -0.37836  -0.37646  -0.24435
  Beta virt. eigenvalues --   -0.09359  -0.08817  -0.05503  -0.05048  -0.02909
  Beta virt. eigenvalues --   -0.00984  -0.00913  -0.00904   0.04032   0.05293
  Beta virt. eigenvalues --    0.05550   0.08833   0.09059   0.09280   0.09326

 Mulliken charges and spin densities:
               1          2
     1  Fe   1.179309   3.845117
     2  O   -0.677377   0.024886
     3  H    0.408298   0.002276
     4  O   -0.677437   0.017718
     5  H    0.407503   0.003311
     6  O   -0.673599   0.018905
     7  H    0.403650   0.002478
     8  O   -0.677137   0.024951
     9  H    0.408345   0.002284
    10  O   -0.677355   0.017748
    11  H    0.407151   0.003052
    12  O   -0.673512   0.018929
    13  H    0.403602   0.002472
    14  H    0.403687   0.002483
    15  H    0.407099   0.003045
    16  H    0.408343   0.002284
    17  H    0.407484   0.003305
    18  H    0.403663   0.002481
    19  H    0.408282   0.002272
 Sum of Mulliken charges =   2.00000   4.00000

 Dipole moment (field-independent basis, Debye):
    X=             -0.0006    Y=              0.0007    Z=              0.0031  Tot=              0.0033
 Quadrupole moment (field-independent basis, Debye-Ang):
   XX=            -15.9924   YY=            -16.4675   ZZ=            -15.5943
   XY=             -0.0977   XZ=             -0.1669   YZ=              0.0534

 Normal termination of Gaussian 16 at Thu May  2 10:43:44 2024.
