 Gaussian 16, Revision C.02,

 ----------------------------------------------------------------------
 #p M05 6-31+G(2df,p) empiricaldispersion=gd3 opt=(cartesian,calcall,ma
 xcycles=500) freq scf=(maxcycles=500,xqc,maxconventional=50)
 ----------------------------------------------------------------------

 -----
 Title
 -----
 Symbolic Z-matrix:
 Charge =  3 Multiplicity = 6

 SCF Done:  E(UM05) =  -1720.77858757     A.U. after   16 cycles
 SCF Done:  E(UM05) =  -1720.80928275     A.U. after   12 cycles
 SCF Done:  E(UM05) =  -1720.86142473     A.U. after   13 cycles
 SCF Done:  E(UM05) =  -1720.92102801     A.U. after   15 cycles
 SCF Done:  E(UM05) =  -1720.94393672     A.U. after   15 cycles
 SCF Done:  E(UM05) =  -1720.97983616     A.U. after   14 cycles
 SCF Done:  E(UM05) =  -1721.00493207     A.U. after   15 cycles
 SCF Done:  E(UM05) =  -1721.00049996     A.U. after   14 cycles
 SCF Done:  E(UM05) =  -1721.01211232     A.U. after   14 cycles
 SCF Done:  E(UM05) =  -1721.01110125     A.U. after   16 cycles
 SCF Done:  E(UM05) =  -1721.03141800     A.U. after   12 cycles
 SCF Done:  E(UM05) =  -1721.03186787     A.U. after   12 cycles
 SCF Done:  E(UM05) =  -1721.03183810     A.U. after   12 cycles
 SCF Done:  E(UM05) =  -1721.03190876     A.U. after   11 cycles
 SCF Done:  E(UM05) =  -1721.03195018     A.U. after   11 cycles
 SCF Done:  E(UM05) =  -1721.03193886     A.U. after    9 cycles
 SCF Done:  E(UM05) =  -1721.03192282     A.U. after   10 cycles
 SCF Done:  E(UM05) =  -1721.03194665     A.U. after    7 cycles
 Optimization completed.
    -- Stationary point found.
 Normal termination of Gaussian 16 at Thu May  2 22:33:29 2024.

 ----------------------------------------------------------------------
 #P Geom=AllCheck Guess=TCheck SCRF=Check GenChk UM05/6-31+G(2df,p) Fre
 q
 ----------------------------------------------------------------------

 Structure from the checkpoint file:  "Fe_3_M05.chk"
 -----
 Title
 -----
 Charge =  3 Multiplicity = 6

 SCF Done:  E(UM05) =  -1721.03194665     A.U. after    1 cycles

  Exact polarizability:      61.895       0.015      61.883       0.006      -0.012      61.912
 Approx polarizability:      73.832       0.001      73.841       0.010       0.001      73.817

                      1                      2                      3
                      A                      A                      A
 Frequencies --    110.3299               111.8338               112.6904
 Red. masses --      4.4247                 4.4640                 4.4383
 Frc consts  --      0.0317                 0.0329                 0.0332
 IR Inten    --      0.8292                 0.8679                 0.8661

                      4                      5                      6
                      A                      A                      A
 Frequencies --    167.9831               168.6942               168.8468
 Red. masses --      4.8507                 4.8347                 4.8625
 Frc consts  --      0.0806                 0.0811                 0.0817
 IR Inten    --      0.0000                 0.0000                 0.0000

                      7                      8                      9
                      A                      A                      A
 Frequencies --    173.4178               175.1847               176.4465
 Red. masses --      5.3251                 5.3163                 5.3264
 Frc consts  --      0.0944                 0.0961                 0.0977
 IR Inten    --      0.0704                 0.0570                 0.0526

                     10                     11                     12
                      A                      A                      A
 Frequencies --    256.6511               261.3334               333.5209
 Red. masses --      1.0080                 1.0079                 1.0219
 Frc consts  --      0.0391                 0.0406                 0.0670
 IR Inten    --      0.0842                 0.0586                 0.0006

                     13                     14                     15
                      A                      A                      A
 Frequencies --    334.0294               336.3556               336.9000
 Red. masses --      1.0207                 5.7040                 5.7814
 Frc consts  --      0.0671                 0.3802                 0.3866
 IR Inten    --      0.0006                 0.0000                 0.0000

                     16                     17                     18
                      A                      A                      A
 Frequencies --    339.6281               410.4081               412.3633
 Red. masses --      1.0233                 5.1766                 5.2302
 Frc consts  --      0.0695                 0.5137                 0.5240
 IR Inten    --      0.0011                 0.0180                 0.0086

                     19                     20                     21
                      A                      A                      A
 Frequencies --    413.6234               431.7995               467.9568
 Red. masses --      5.1517                 6.0355                 1.0085
 Frc consts  --      0.5193                 0.6630                 0.1301
 IR Inten    --      0.0439                 0.0000                 0.8504

                     22                     23                     24
                      A                      A                      A
 Frequencies --    504.2840               505.2204               508.3662
 Red. masses --      1.1316                 1.1308                 1.1315
 Frc consts  --      0.1695                 0.1701                 0.1723
 IR Inten    --      0.1476                 0.0266                 0.0075

                     25                     26                     27
                      A                      A                      A
 Frequencies --    519.6735               521.0000               524.0065
 Red. masses --      1.2039                 1.2030                 1.1989
 Frc consts  --      0.1916                 0.1924                 0.1940
 IR Inten    --    427.8532               436.6292               432.0441

                     28                     29                     30
                      A                      A                      A
 Frequencies --    647.8949               648.4665               650.4428
 Red. masses --      1.1516                 1.1522                 1.1512
 Frc consts  --      0.2848                 0.2855                 0.2870
 IR Inten    --      0.0519                 0.0048                 0.0181

                     31                     32                     33
                      A                      A                      A
 Frequencies --    659.1259               660.5541               662.2712
 Red. masses --      1.2233                 1.2253                 1.2221
 Frc consts  --      0.3131                 0.3150                 0.3158
 IR Inten    --    274.6280               282.0391               279.3142

                     34                     35                     36
                      A                      A                      A
 Frequencies --   1623.5545              1624.1155              1625.1753
 Red. masses --      1.0904                 1.0904                 1.0904
 Frc consts  --      1.6934                 1.6947                 1.6968
 IR Inten    --    237.4921               237.3129               236.9172

                     37                     38                     39
                      A                      A                      A
 Frequencies --   1626.1117              1626.9744              1637.9898
 Red. masses --      1.0904                 1.0903                 1.0799
 Frc consts  --      1.6987                 1.7005                 1.7070
 IR Inten    --      0.0229                 0.0075                 0.0003

                     40                     41                     42
                      A                      A                      A
 Frequencies --   3677.4789              3677.9803              3678.9182
 Red. masses --      1.0445                 1.0446                 1.0447
 Frc consts  --      8.3230                 8.3255                 8.3310
 IR Inten    --      0.2147                 0.2429               852.3454

                     43                     44                     45
                      A                      A                      A
 Frequencies --   3679.2419              3679.7678              3708.1409
 Red. masses --      1.0448                 1.0448                 1.0469
 Frc consts  --      8.3326                 8.3353                 8.4812
 IR Inten    --    854.1551               852.9254                 0.0023

                     46                     47                     48
                      A                      A                      A
 Frequencies --   3771.9253              3771.9976              3772.5897
 Red. masses --      1.0848                 1.0848                 1.0848
 Frc consts  --      9.0936                 9.0941                 9.0967
 IR Inten    --      0.7393                 0.0483                 2.0866

                     49                     50                     51
                      A                      A                      A
 Frequencies --   3772.8070              3772.8862              3773.4766
 Red. masses --      1.0849                 1.0849                 1.0849
 Frc consts  --      9.0987                 9.0991                 9.1018
 IR Inten    --    651.7287               665.5089               658.3526

 - Thermochemistry -
 -------------------
 Temperature   298.150 Kelvin.  Pressure   1.00000 Atm.
 Atom     1 has atomic number 26 and mass  55.93494

 Molecular mass:   163.99833 amu.
 Principal axes and moments of inertia in atomic units:
                           1         2         3
     Eigenvalues --  1170.336361170.498461170.74177
           X            0.99989  -0.01306   0.00643
           Y            0.01301   0.99989   0.00765
           Z           -0.00653  -0.00756   0.99995
 This molecule is an asymmetric top.
 Rotational symmetry number  1.
 Warning -- assumption of classical behavior for rotation
           may cause significant error
 Rotational temperatures (Kelvin)      0.07401     0.07400     0.07398
 Rotational constants (GHZ):           1.54207     1.54186     1.54154
 Zero-point vibrational energy     402019.6 (Joules/Mol)
                                   96.08500 (Kcal/Mol)
 Warning -- explicit consideration of  27 degrees of freedom as
           vibrations may cause significant error
 Vibrational temperatures:    158.74   160.90   162.14   241.69   242.71
          (Kelvin)            242.93   249.51   252.05   253.87   369.26
                              376.00   479.86   480.59   483.94   484.72
                              488.65   590.49   593.30   595.11   621.26
                              673.29   725.55   726.90   731.43   747.69
                              749.60   753.93   932.18   933.00   935.84
                              948.34   950.39   952.86  2335.93  2336.74
                             2338.26  2339.61  2340.85  2356.70  5291.07
                             5291.79  5293.14  5293.61  5294.37  5335.19
                             5426.96  5427.06  5427.92  5428.23  5428.34
                             5429.19

 Zero-point correction=                           0.153121 (Hartree/Particle)
 Thermal correction to Energy=                    0.168080
 Thermal correction to Enthalpy=                  0.169024
 Thermal correction to Gibbs Free Energy=         0.113121
 Sum of electronic and zero-point Energies=          -1720.878825
 Sum of electronic and thermal Energies=             -1720.863867
 Sum of electronic and thermal Enthalpies=           -1720.862922
 Sum of electronic and thermal Free Energies=        -1720.918826

                     E (Thermal)             CV                S
                      KCal/Mol        Cal/Mol-Kelvin    Cal/Mol-Kelvin
 Total                  105.472             54.723            117.659
 Electronic               0.000              0.000              3.561
 Translational            0.889              2.981             41.193
 Rotational               0.889              2.981             28.863
 Vibrational            103.694             48.761             44.043
 Vibration     1          0.606              1.941              3.263
 Vibration     2          0.607              1.940              3.237
 Vibration     3          0.607              1.939              3.222
 Vibration     4          0.625              1.882              2.458
 Vibration     5          0.625              1.881              2.450
 Vibration     6          0.625              1.881              2.448
 Vibration     7          0.627              1.875              2.398
 Vibration     8          0.627              1.873              2.379
 Vibration     9          0.628              1.871              2.366
 Vibration    10          0.666              1.752              1.684
 Vibration    11          0.669              1.744              1.653
 Vibration    12          0.715              1.609              1.243
 Vibration    13          0.716              1.608              1.241
 Vibration    14          0.717              1.603              1.229
 Vibration    15          0.718              1.602              1.227
 Vibration    16          0.720              1.596              1.214
 Vibration    17          0.775              1.448              0.925
 Vibration    18          0.776              1.443              0.918
 Vibration    19          0.777              1.441              0.914
 Vibration    20          0.793              1.401              0.853
 Vibration    21          0.825              1.321              0.743
 Vibration    22          0.860              1.241              0.647
 Vibration    23          0.860              1.238              0.645
 Vibration    24          0.864              1.231              0.638
 Vibration    25          0.875              1.206              0.611
 Vibration    26          0.876              1.203              0.608
 Vibration    27          0.879              1.197              0.601

 Normal termination of Gaussian 16 at Thu May  2 22:35:56 2024.
 Gaussian 16:  ES64L-G16RevC.02  7-Dec-2021

 ------------------------------------------------------------------
 #p M05 scrf=(cpcm,solvent=water) geom=allcheck guess=read chkbasis
 ------------------------------------------------------------------

 Structure from the checkpoint file:  "Fe_3_M05.chk_solvated"
 -----
 Title
 -----
 Charge =  3 Multiplicity = 6

                         Standard orientation:
 ---------------------------------------------------------------------
 Center     Atomic      Atomic             Coordinates (Angstroms)
 Number     Number       Type             X           Y           Z
 ---------------------------------------------------------------------
      1         26           0       -0.000015   -0.000002   -0.000011
      2          8           0       -1.451327   -0.249374   -1.417418
      3          1           0       -2.138580   -0.938850   -1.430978
      4          8           0        1.248000   -1.221626   -1.062035
      5          1           0        2.157568   -1.473258   -0.823115
      6          8           0        0.717829    1.619617   -1.019389
      7          1           0        0.445036    2.547082   -0.904614
      8          8           0        1.451368    0.249262    1.417397
      9          1           0        1.593212   -0.301174    2.207781
     10          8           0       -1.247839    1.221719    1.062140
     11          1           0       -2.157083    1.474190    0.822901
     12          8           0       -0.717993   -1.619612    1.019297
     13          1           0       -0.447141   -2.547407    0.902600
     14          1           0       -1.397505   -1.613283    1.716475
     15          1           0        1.048895   -1.664835   -1.905645
     16          1           0       -1.590351    0.298273   -2.210228
     17          1           0       -1.048900    1.664163    1.906189
     18          1           0        1.399356    1.613610   -1.714613
     19          1           0        2.135566    0.941668    1.433580
 ---------------------------------------------------------------------

 SCF Done:  E(UM05) =  -1721.65899830     A.U. after   12 cycles

 The electronic state is 6-A.
 Alpha  occ. eigenvalues -- -256.49166 -30.54361 -26.31803 -26.31803 -26.31802
 Alpha  occ. eigenvalues --  -19.32190 -19.32190 -19.32185 -19.32185 -19.32184
 Alpha  occ. eigenvalues --  -19.32183  -3.92669  -2.67235  -2.67235  -2.67233
 Alpha  occ. eigenvalues --   -1.16561  -1.15585  -1.15582  -1.15578  -1.15423
 Alpha  occ. eigenvalues --   -1.15419  -0.68075  -0.68074  -0.66838  -0.66835
 Alpha  occ. eigenvalues --   -0.66829  -0.65287  -0.65284  -0.65282  -0.62950
 Alpha  occ. eigenvalues --   -0.61987  -0.61986  -0.61983  -0.57076  -0.57074
 Alpha  occ. eigenvalues --   -0.57070  -0.47593  -0.47591  -0.45393  -0.45388
 Alpha  occ. eigenvalues --   -0.45384  -0.44847  -0.44837  -0.44836
 Alpha virt. eigenvalues --   -0.06005  -0.01297  -0.01294  -0.01293   0.04000
 Alpha virt. eigenvalues --    0.04005   0.04183   0.08005   0.08012   0.08014
 Alpha virt. eigenvalues --    0.08123   0.08128   0.08131   0.12254   0.13969

  Beta  occ. eigenvalues -- -256.49281 -30.47326 -26.25464 -26.25463 -26.25463
  Beta  occ. eigenvalues --  -19.31948 -19.31948 -19.31943 -19.31943 -19.31942
  Beta  occ. eigenvalues --  -19.31941  -3.67553  -2.41130  -2.41129  -2.41129
  Beta  occ. eigenvalues --   -1.15914  -1.14916  -1.14913  -1.14910  -1.14715
  Beta  occ. eigenvalues --   -1.14711  -0.64891  -0.64889  -0.64883  -0.64786
  Beta  occ. eigenvalues --   -0.64783  -0.64781  -0.61859  -0.57910  -0.57905
  Beta  occ. eigenvalues --   -0.56041  -0.56038  -0.56033  -0.45356  -0.45341
  Beta  occ. eigenvalues --   -0.45336  -0.44322  -0.44316  -0.44312
  Beta virt. eigenvalues --   -0.24623  -0.24618  -0.24616  -0.19711  -0.19709
  Beta virt. eigenvalues --   -0.05564  -0.01024  -0.01022  -0.01021   0.04394
  Beta virt. eigenvalues --    0.04568   0.04573   0.08353   0.08359   0.08361

 Mulliken charges and spin densities:
               1          2
     1  Fe   1.543960   4.427398
     2  O   -0.647410   0.093438
     3  H    0.445046   0.000981
     4  O   -0.647115   0.093510
     5  H    0.444890   0.000974
     6  O   -0.647371   0.093507
     7  H    0.445031   0.000983
     8  O   -0.647420   0.093418
     9  H    0.445001   0.000975
    10  O   -0.647119   0.093504
    11  H    0.444891   0.000975
    12  O   -0.647373   0.093503
    13  H    0.445029   0.000983
    14  H    0.445032   0.000972
    15  H    0.444932   0.000977
    16  H    0.445001   0.000975
    17  H    0.444928   0.000977
    18  H    0.445036   0.000971
    19  H    0.445030   0.000982
 Sum of Mulliken charges =   3.00000   5.00000

 Dipole moment (field-independent basis, Debye):
    X=             -0.0002    Y=              0.0003    Z=              0.0004  Tot=              0.0006
 Quadrupole moment (field-independent basis, Debye-Ang):
   XX=             -7.2755   YY=             -7.2590   ZZ=             -7.2984
   XY=             -0.0034   XZ=              0.0081   YZ=              0.0022

 Normal termination of Gaussian 16 at Thu May  2 22:36:22 2024.
